# add your comment ... 
 
130 atoms
1 atom types
 
     0.0000000000000000     11.4212000000000007   xlo xhi
     0.0000000000000000     11.4212000000000007   ylo yhi
     0.0000000000000000     11.4212000000000007   zlo zhi
     0.0000000000000000      0.0000000000000000      0.0000000000000000   xy xz yz
 
Atoms
 
       1     1        2.130515549283       2.130515549283       2.855300000000
       2     1        3.580084450717       3.580084450717       2.855300000000
       3     1        2.130515549283      -0.724784450717       2.855300000000
       4     1        3.580084450717       0.724784450717       2.855300000000
       5     1        0.000000000000       0.000000000000       0.000000000000
       6     1        1.427650000000       1.427650000000       1.427650000000
       7     1        0.000000000000       0.000000000000       2.855300000000
       8     1        1.427650000000       1.427650000000       4.282950000000
       9     1        0.000000000000       0.000000000000       5.710600000000
      10     1        1.427650000000       1.427650000000       7.138250000000
      11     1        0.000000000000       0.000000000000       8.565900000000
      12     1        1.427650000000       1.427650000000       9.993550000000
      13     1        0.000000000000       2.855300000000       0.000000000000
      14     1        1.427650000000       4.282950000000       1.427650000000
      15     1        0.000000000000       2.855300000000       2.855300000000
      16     1        1.427650000000       4.282950000000       4.282950000000
      17     1        0.000000000000       2.855300000000       5.710600000000
      18     1        1.427650000000       4.282950000000       7.138250000000
      19     1        0.000000000000       2.855300000000       8.565900000000
      20     1        1.427650000000       4.282950000000       9.993550000000
      21     1        0.000000000000       5.710600000000       0.000000000000
      22     1        1.427650000000       7.138250000000       1.427650000000
      23     1        0.000000000000       5.710600000000       2.855300000000
      24     1        1.427650000000       7.138250000000       4.282950000000
      25     1        0.000000000000       5.710600000000       5.710600000000
      26     1        1.427650000000       7.138250000000       7.138250000000
      27     1        0.000000000000       5.710600000000       8.565900000000
      28     1        1.427650000000       7.138250000000       9.993550000000
      29     1        0.000000000000       8.565900000000       0.000000000000
      30     1        1.427650000000       9.993550000000       1.427650000000
      31     1        0.000000000000       8.565900000000       2.855300000000
      32     1        1.427650000000       9.993550000000       4.282950000000
      33     1        0.000000000000       8.565900000000       5.710600000000
      34     1        1.427650000000       9.993550000000       7.138250000000
      35     1        0.000000000000       8.565900000000       8.565900000000
      36     1        1.427650000000       9.993550000000       9.993550000000
      37     1        2.855300000000       0.000000000000       0.000000000000
      38     1        4.282950000000       1.427650000000       1.427650000000
      39     1        4.282950000000       1.427650000000       4.282950000000
      40     1        2.855300000000       0.000000000000       5.710600000000
      41     1        4.282950000000       1.427650000000       7.138250000000
      42     1        2.855300000000       0.000000000000       8.565900000000
      43     1        4.282950000000       1.427650000000       9.993550000000
      44     1        2.855300000000       2.855300000000       0.000000000000
      45     1        4.282950000000       4.282950000000       1.427650000000
      46     1        4.282950000000       4.282950000000       4.282950000000
      47     1        2.855300000000       2.855300000000       5.710600000000
      48     1        4.282950000000       4.282950000000       7.138250000000
      49     1        2.855300000000       2.855300000000       8.565900000000
      50     1        4.282950000000       4.282950000000       9.993550000000
      51     1        2.855300000000       5.710600000000       0.000000000000
      52     1        4.282950000000       7.138250000000       1.427650000000
      53     1        2.855300000000       5.710600000000       2.855300000000
      54     1        4.282950000000       7.138250000000       4.282950000000
      55     1        2.855300000000       5.710600000000       5.710600000000
      56     1        4.282950000000       7.138250000000       7.138250000000
      57     1        2.855300000000       5.710600000000       8.565900000000
      58     1        4.282950000000       7.138250000000       9.993550000000
      59     1        2.855300000000       8.565900000000       0.000000000000
      60     1        4.282950000000       9.993550000000       1.427650000000
      61     1        2.855300000000       8.565900000000       2.855300000000
      62     1        4.282950000000       9.993550000000       4.282950000000
      63     1        2.855300000000       8.565900000000       5.710600000000
      64     1        4.282950000000       9.993550000000       7.138250000000
      65     1        2.855300000000       8.565900000000       8.565900000000
      66     1        4.282950000000       9.993550000000       9.993550000000
      67     1        5.710600000000       0.000000000000       0.000000000000
      68     1        7.138250000000       1.427650000000       1.427650000000
      69     1        5.710600000000       0.000000000000       2.855300000000
      70     1        7.138250000000       1.427650000000       4.282950000000
      71     1        5.710600000000       0.000000000000       5.710600000000
      72     1        7.138250000000       1.427650000000       7.138250000000
      73     1        5.710600000000       0.000000000000       8.565900000000
      74     1        7.138250000000       1.427650000000       9.993550000000
      75     1        5.710600000000       2.855300000000       0.000000000000
      76     1        7.138250000000       4.282950000000       1.427650000000
      77     1        5.710600000000       2.855300000000       2.855300000000
      78     1        7.138250000000       4.282950000000       4.282950000000
      79     1        5.710600000000       2.855300000000       5.710600000000
      80     1        7.138250000000       4.282950000000       7.138250000000
      81     1        5.710600000000       2.855300000000       8.565900000000
      82     1        7.138250000000       4.282950000000       9.993550000000
      83     1        5.710600000000       5.710600000000       0.000000000000
      84     1        7.138250000000       7.138250000000       1.427650000000
      85     1        5.710600000000       5.710600000000       2.855300000000
      86     1        7.138250000000       7.138250000000       4.282950000000
      87     1        5.710600000000       5.710600000000       5.710600000000
      88     1        7.138250000000       7.138250000000       7.138250000000
      89     1        5.710600000000       5.710600000000       8.565900000000
      90     1        7.138250000000       7.138250000000       9.993550000000
      91     1        5.710600000000       8.565900000000       0.000000000000
      92     1        7.138250000000       9.993550000000       1.427650000000
      93     1        5.710600000000       8.565900000000       2.855300000000
      94     1        7.138250000000       9.993550000000       4.282950000000
      95     1        5.710600000000       8.565900000000       5.710600000000
      96     1        7.138250000000       9.993550000000       7.138250000000
      97     1        5.710600000000       8.565900000000       8.565900000000
      98     1        7.138250000000       9.993550000000       9.993550000000
      99     1        8.565900000000       0.000000000000       0.000000000000
     100     1        9.993550000000       1.427650000000       1.427650000000
     101     1        8.565900000000       0.000000000000       2.855300000000
     102     1        9.993550000000       1.427650000000       4.282950000000
     103     1        8.565900000000       0.000000000000       5.710600000000
     104     1        9.993550000000       1.427650000000       7.138250000000
     105     1        8.565900000000       0.000000000000       8.565900000000
     106     1        9.993550000000       1.427650000000       9.993550000000
     107     1        8.565900000000       2.855300000000       0.000000000000
     108     1        9.993550000000       4.282950000000       1.427650000000
     109     1        8.565900000000       2.855300000000       2.855300000000
     110     1        9.993550000000       4.282950000000       4.282950000000
     111     1        8.565900000000       2.855300000000       5.710600000000
     112     1        9.993550000000       4.282950000000       7.138250000000
     113     1        8.565900000000       2.855300000000       8.565900000000
     114     1        9.993550000000       4.282950000000       9.993550000000
     115     1        8.565900000000       5.710600000000       0.000000000000
     116     1        9.993550000000       7.138250000000       1.427650000000
     117     1        8.565900000000       5.710600000000       2.855300000000
     118     1        9.993550000000       7.138250000000       4.282950000000
     119     1        8.565900000000       5.710600000000       5.710600000000
     120     1        9.993550000000       7.138250000000       7.138250000000
     121     1        8.565900000000       5.710600000000       8.565900000000
     122     1        9.993550000000       7.138250000000       9.993550000000
     123     1        8.565900000000       8.565900000000       0.000000000000
     124     1        9.993550000000       9.993550000000       1.427650000000
     125     1        8.565900000000       8.565900000000       2.855300000000
     126     1        9.993550000000       9.993550000000       4.282950000000
     127     1        8.565900000000       8.565900000000       5.710600000000
     128     1        9.993550000000       9.993550000000       7.138250000000
     129     1        8.565900000000       8.565900000000       8.565900000000
     130     1        9.993550000000       9.993550000000       9.993550000000
